# vtk DataFile Version 2.0
domain, Created by Gmsh 4.13.1 
ASCII
DATASET UNSTRUCTURED_GRID
POINTS 468 double
0 0 0
1 0 0
1 1 0
0 1 0
0 0 1
1 0 1
1 1 1
0 1 1
1 0 0
2 0 0
2 1 0
1 1 0
1 0 1
2 0 1
2 1 1
1 1 1
0.5 0 0
0.25 0 0
0.75 0 0
1.309016994374947 0.4999999999999994 0
1.225528258147577 0.2061073738537632 0
1.225528258147577 0.793892626146236 0
0.5 1 0
0.75 1 0
0.25 1 0
0 0.5 0
0 0.75 0
0 0.25 0
0 0 0.5
0 0 0.25
0 0 0.75
1 0 0.5
1 0 0.25
1 0 0.75
0.5 0 1
0.25 0 1
0.75 0 1
1 1 0.5
1 1 0.25
1 1 0.75
1.309016994374947 0.4999999999999994 1
1.225528258147577 0.2061073738537632 1
1.225528258147577 0.793892626146236 1
0 1 0.5
0 1 0.25
0 1 0.75
0.5 1 1
0.75 1 1
0.25 1 1
0 0.5 1
0 0.75 1
0 0.25 1
1.333333333333333 0 0
1.666666666666667 0 0
1.166666666666667 0 0
1.5 0 0
1.833333333333333 0 0
2 0.3333333333333333 0
2 0.6666666666666666 0
2 0.1666666666666667 0
2 0.5 0
2 0.8333333333333333 0
1.666666666666667 1 0
1.333333333333333 1 0
1.833333333333333 1 0
1.5 1 0
1.166666666666667 1 0
1.271378723200383 0.7016537304240568 0
1.271378723200383 0.298346269575944 0
1.163532233077464 0.8761530170103203 0
1.309016994374947 0.5000000000000007 0
1.163532233077464 0.1238469829896803 0
1 0 0.3333333333333333
1 0 0.6666666666666666
1 0 0.1666666666666667
1 0 0.5
1 0 0.8333333333333333
2 0 0.3333333333333333
2 0 0.6666666666666666
2 0 0.1666666666666667
2 0 0.5
2 0 0.8333333333333333
1.333333333333333 0 1
1.666666666666667 0 1
1.166666666666667 0 1
1.5 0 1
1.833333333333333 0 1
2 1 0.3333333333333333
2 1 0.6666666666666666
2 1 0.1666666666666667
2 1 0.5
2 1 0.8333333333333333
2 0.3333333333333333 1
2 0.6666666666666666 1
2 0.1666666666666667 1
2 0.5 1
2 0.8333333333333333 1
1 1 0.3333333333333333
1 1 0.6666666666666666
1 1 0.1666666666666667
1 1 0.5
1 1 0.8333333333333333
1.666666666666667 1 1
1.333333333333333 1 1
1.833333333333333 1 1
1.5 1 1
1.166666666666667 1 1
1.271378723200383 0.7016537304240568 1
1.271378723200383 0.298346269575944 1
1.163532233077464 0.8761530170103203 1
1.309016994374947 0.5000000000000007 1
1.163532233077464 0.1238469829896803 1
0.6545084971874736 0.4999999999999998 0
0.5772542485937368 0.2499999999999999 0
0.3272542485937368 0.4999999999999999 0
0.2886271242968684 0.2499999999999999 0
0.5772542485937368 0.7499999999999999 0
0.2886271242968683 0.75 0
0.9817627457812106 0.4999999999999996 0
0.9013912533706567 0.2280536869268815 0
0.9013912533706568 0.771946313073118 0
0.5 0 0.5
0.5 0 0.25
0.25 0 0.5
0.25 0 0.25
0.5 0 0.75
0.25 0 0.75
0.75 0 0.5
0.75 0 0.25
0.75 0 0.75
1.309016994374947 0.4999999999999994 0.5
1.309016994374947 0.4999999999999994 0.25
1.225528258147577 0.2061073738537632 0.5
1.225528258147577 0.2061073738537632 0.25
1.309016994374947 0.4999999999999994 0.75
1.225528258147577 0.2061073738537632 0.75
1.225528258147577 0.7938926261462362 0.5
1.225528258147577 0.793892626146236 0.25
1.225528258147577 0.793892626146236 0.75
0.5 1 0.5
0.5 1 0.25
0.75 1 0.5
0.75 1 0.25
0.5 1 0.75
0.75 1 0.75
0.25 1 0.5
0.25 1 0.25
0.25 1 0.75
0 0.5 0.5
0 0.5 0.25
0 0.75 0.5
0 0.75 0.25
0 0.5 0.75
0 0.75 0.75
0 0.25 0.5
0 0.25 0.25
0 0.25 0.75
0.6545084971874736 0.4999999999999998 1
0.5772542485937369 0.2499999999999999 1
0.3272542485937368 0.4999999999999999 1
0.2886271242968684 0.2499999999999999 1
0.5772542485937369 0.7499999999999999 1
0.2886271242968684 0.75 1
0.9817627457812106 0.4999999999999996 1
0.9013912533706567 0.2280536869268815 1
0.9013912533706568 0.771946313073118 1
1.514252482133589 0.3100086241617404 0
1.514252482133589 0.6899913758382601 0
1.757126241066794 0.3216709787475369 0
1.757126241066794 0.6783290212524633 0
1.423792907733461 0.1550043120808702 0
1.392815602666986 0.3041774468688422 0
1.293662570405463 0.1394256475352752 0
1.514252482133589 0.5000000000000002 0
1.392815602666986 0.6958225531311584 0
1.411634738254268 0.5000000000000004 0
1.423792907733461 0.84499568791913 0
1.293662570405463 0.8605743524647252 0
1.711896453866731 0.1608354893737685 0
1.635689361600192 0.3158398014546386 0
1.567844680800096 0.1579199007273193 0
1.757126241066794 0.5000000000000001 0
1.635689361600192 0.6841601985453617 0
1.635689361600192 0.5000000000000002 0
1.711896453866731 0.8391645106262317 0
1.567844680800096 0.8420800992726809 0
1.878563120533397 0.3275021560404351 0
1.855948226933365 0.1637510780202175 0
1.878563120533397 0.672497843959565 0
1.878563120533397 0.5000000000000001 0
1.855948226933365 0.8362489219797824 0
1.333333333333333 0 0.3333333333333333
1.333333333333333 0 0.6666666666666666
1.666666666666667 0 0.3333333333333333
1.666666666666667 0 0.6666666666666666
1.333333333333333 0 0.1666666666666667
1.166666666666667 0 0.3333333333333333
1.166666666666667 0 0.1666666666666667
1.333333333333333 0 0.5
1.166666666666667 0 0.6666666666666666
1.166666666666667 0 0.4999999999999999
1.333333333333333 0 0.8333333333333333
1.166666666666667 0 0.8333333333333333
1.666666666666667 0 0.1666666666666667
1.5 0 0.3333333333333333
1.5 0 0.1666666666666667
1.666666666666667 0 0.5
1.5 0 0.6666666666666666
1.5 0 0.4999999999999999
1.666666666666667 0 0.8333333333333333
1.5 0 0.8333333333333333
1.833333333333333 0 0.3333333333333333
1.833333333333333 0 0.1666666666666667
1.833333333333333 0 0.6666666666666666
1.833333333333333 0 0.4999999999999999
1.833333333333333 0 0.8333333333333333
2 0.3333333333333333 0.3333333333333333
2 0.3333333333333333 0.6666666666666666
2 0.6666666666666666 0.3333333333333333
2 0.6666666666666666 0.6666666666666666
2 0.3333333333333333 0.1666666666666667
2 0.1666666666666667 0.3333333333333333
2 0.1666666666666667 0.1666666666666667
2 0.3333333333333333 0.5
2 0.1666666666666667 0.6666666666666666
2 0.1666666666666667 0.4999999999999999
2 0.3333333333333333 0.8333333333333333
2 0.1666666666666667 0.8333333333333333
2 0.6666666666666666 0.1666666666666667
2 0.5 0.3333333333333333
2 0.5 0.1666666666666667
2 0.6666666666666666 0.5
2 0.5 0.6666666666666666
2 0.5 0.4999999999999999
2 0.6666666666666666 0.8333333333333333
2 0.5 0.8333333333333333
2 0.8333333333333333 0.3333333333333333
2 0.8333333333333333 0.1666666666666667
2 0.8333333333333333 0.6666666666666666
2 0.8333333333333333 0.4999999999999999
2 0.8333333333333333 0.8333333333333333
1.666666666666667 1 0.3333333333333333
1.666666666666667 1 0.6666666666666666
1.333333333333333 1 0.3333333333333333
1.333333333333333 1 0.6666666666666666
1.666666666666667 1 0.1666666666666667
1.833333333333333 1 0.3333333333333333
1.833333333333333 1 0.1666666666666667
1.666666666666667 1 0.5
1.833333333333333 1 0.6666666666666666
1.833333333333333 1 0.4999999999999999
1.666666666666667 1 0.8333333333333333
1.833333333333333 1 0.8333333333333333
1.333333333333333 1 0.1666666666666667
1.5 1 0.3333333333333333
1.5 1 0.1666666666666667
1.333333333333333 1 0.5
1.5 1 0.6666666666666666
1.5 1 0.4999999999999999
1.333333333333333 1 0.8333333333333333
1.5 1 0.8333333333333333
1.166666666666667 1 0.3333333333333333
1.166666666666667 1 0.1666666666666667
1.166666666666667 1 0.6666666666666666
1.166666666666667 1 0.4999999999999999
1.166666666666667 1 0.8333333333333333
1.271378723200383 0.7016537304240568 0.3333333333333333
1.271378723200383 0.7016537304240568 0.6666666666666666
1.271378723200383 0.298346269575944 0.3333333333333333
1.271378723200383 0.298346269575944 0.6666666666666666
1.271378723200383 0.7016537304240568 0.1666666666666667
1.163532233077464 0.8761530170103203 0.3333333333333333
1.163532233077464 0.8761530170103204 0.1666666666666667
1.271378723200383 0.7016537304240568 0.5
1.163532233077464 0.8761530170103203 0.6666666666666666
1.163532233077464 0.8761530170103204 0.4999999999999999
1.271378723200383 0.7016537304240568 0.8333333333333333
1.163532233077464 0.8761530170103204 0.8333333333333333
1.271378723200383 0.2983462695759435 0.1666666666666667
1.309016994374947 0.4999999999999997 0.3333333333333333
1.309016994374947 0.4999999999999999 0.1666666666666667
1.271378723200383 0.2983462695759435 0.5
1.309016994374947 0.4999999999999997 0.6666666666666666
1.309016994374947 0.4999999999999994 0.4999999999999999
1.271378723200383 0.2983462695759435 0.8333333333333333
1.309016994374947 0.4999999999999999 0.8333333333333333
1.163532233077464 0.1238469829896799 0.3333333333333333
1.163532233077464 0.1238469829896798 0.1666666666666667
1.163532233077464 0.1238469829896799 0.6666666666666666
1.163532233077464 0.1238469829896796 0.4999999999999999
1.163532233077464 0.1238469829896798 0.8333333333333333
1.514252482133589 0.3100086241617404 1
1.514252482133589 0.6899913758382601 1
1.757126241066794 0.3216709787475369 1
1.757126241066794 0.6783290212524633 1
1.423792907733461 0.1550043120808702 1
1.392815602666986 0.3041774468688422 1
1.293662570405463 0.1394256475352752 1
1.514252482133589 0.5000000000000002 1
1.392815602666986 0.6958225531311584 1
1.411634738254268 0.5000000000000004 1
1.423792907733461 0.84499568791913 1
1.293662570405462 0.8605743524647252 1
1.711896453866731 0.1608354893737685 1
1.635689361600192 0.3158398014546386 1
1.567844680800096 0.1579199007273193 1
1.757126241066794 0.5000000000000001 1
1.635689361600192 0.6841601985453617 1
1.635689361600192 0.5000000000000002 1
1.711896453866731 0.8391645106262317 1
1.567844680800096 0.8420800992726809 1
1.878563120533397 0.3275021560404351 1
1.855948226933365 0.1637510780202175 1
1.878563120533397 0.672497843959565 1
1.878563120533397 0.5 1
1.855948226933365 0.8362489219797824 1
0.6545084971874736 0.4999999999999998 0.5
0.6545084971874736 0.4999999999999998 0.25
0.5772542485937369 0.2499999999999999 0.5
0.3272542485937368 0.4999999999999999 0.5
0.5772542485937368 0.2499999999999999 0.25
0.3272542485937368 0.4999999999999999 0.25
0.2886271242968684 0.2499999999999999 0.5
0.2886271242968684 0.25 0.25
0.6545084971874736 0.4999999999999998 0.75
0.5772542485937369 0.2499999999999999 0.75
0.3272542485937368 0.4999999999999999 0.75
0.2886271242968685 0.25 0.75
0.5772542485937369 0.7499999999999999 0.5
0.5772542485937368 0.7499999999999998 0.25
0.2886271242968684 0.75 0.5
0.2886271242968684 0.7499999999999999 0.25
0.5772542485937369 0.7499999999999998 0.75
0.2886271242968683 0.7499999999999999 0.75
0.9817627457812106 0.4999999999999996 0.5
0.9817627457812106 0.4999999999999996 0.25
0.9013912533706567 0.2280536869268815 0.5
0.9013912533706567 0.2280536869268815 0.25
0.9817627457812106 0.4999999999999996 0.75
0.9013912533706566 0.2280536869268816 0.75
0.901391253370657 0.7719463130731181 0.5
0.901391253370657 0.7719463130731178 0.25
0.9013912533706572 0.7719463130731179 0.75
1.514252482133589 0.3100086241617404 0.3333333333333333
1.514252482133589 0.3100086241617404 0.6666666666666666
1.514252482133589 0.6899913758382601 0.3333333333333333
1.514252482133589 0.6899913758382601 0.6666666666666666
1.757126241066794 0.3216709787475369 0.3333333333333333
1.757126241066794 0.3216709787475369 0.6666666666666666
1.757126241066794 0.6783290212524633 0.3333333333333333
1.757126241066794 0.6783290212524633 0.6666666666666666
1.514252482133589 0.3100086241617404 0.1666666666666667
1.423792907733461 0.1550043120808702 0.3333333333333333
1.392815602666986 0.3041774468688422 0.3333333333333333
1.423792907733461 0.1550043120808702 0.1666666666666667
1.392815602666986 0.3041774468688419 0.1666666666666667
1.293662570405462 0.139425647535275 0.3333333333333333
1.293662570405462 0.139425647535275 0.1666666666666667
1.514252482133589 0.3100086241617404 0.5
1.423792907733461 0.1550043120808702 0.6666666666666666
1.392815602666986 0.3041774468688422 0.6666666666666666
1.423792907733461 0.1550043120808702 0.4999999999999999
1.392815602666986 0.3041774468688419 0.4999999999999999
1.293662570405462 0.139425647535275 0.6666666666666666
1.293662570405462 0.1394256475352749 0.5
1.514252482133589 0.3100086241617404 0.8333333333333333
1.423792907733461 0.1550043120808702 0.8333333333333333
1.392815602666986 0.3041774468688419 0.8333333333333333
1.293662570405462 0.1394256475352749 0.8333333333333333
1.514252482133589 0.6899913758382601 0.1666666666666667
1.514252482133589 0.5000000000000002 0.3333333333333333
1.392815602666986 0.6958225531311584 0.3333333333333333
1.514252482133589 0.5000000000000002 0.1666666666666667
1.392815602666986 0.6958225531311584 0.1666666666666667
1.411634738254268 0.4999999999999999 0.3333333333333333
1.411634738254268 0.5000000000000002 0.1666666666666667
1.514252482133589 0.6899913758382601 0.5
1.514252482133589 0.5000000000000002 0.6666666666666666
1.392815602666986 0.6958225531311584 0.6666666666666666
1.514252482133589 0.5000000000000002 0.4999999999999999
1.392815602666986 0.6958225531311584 0.4999999999999999
1.411634738254268 0.4999999999999999 0.6666666666666666
1.411634738254268 0.4999999999999999 0.5
1.514252482133589 0.6899913758382601 0.8333333333333333
1.514252482133589 0.5000000000000002 0.8333333333333333
1.392815602666986 0.6958225531311584 0.8333333333333333
1.411634738254268 0.5000000000000002 0.8333333333333333
1.423792907733461 0.84499568791913 0.3333333333333333
1.423792907733461 0.84499568791913 0.1666666666666667
1.293662570405462 0.8605743524647251 0.3333333333333333
1.293662570405463 0.8605743524647252 0.1666666666666667
1.423792907733461 0.84499568791913 0.6666666666666666
1.423792907733461 0.84499568791913 0.4999999999999999
1.293662570405462 0.8605743524647251 0.6666666666666666
1.293662570405462 0.8605743524647252 0.5
1.423792907733461 0.84499568791913 0.8333333333333333
1.293662570405462 0.8605743524647254 0.8333333333333333
1.757126241066794 0.3216709787475369 0.1666666666666667
1.711896453866731 0.1608354893737685 0.3333333333333333
1.635689361600192 0.3158398014546386 0.3333333333333333
1.711896453866731 0.1608354893737685 0.1666666666666667
1.635689361600192 0.3158398014546386 0.1666666666666667
1.567844680800096 0.1579199007273193 0.3333333333333333
1.567844680800096 0.1579199007273193 0.1666666666666667
1.757126241066794 0.3216709787475369 0.5
1.711896453866731 0.1608354893737685 0.6666666666666666
1.635689361600192 0.3158398014546386 0.6666666666666666
1.711896453866731 0.1608354893737685 0.4999999999999999
1.635689361600192 0.3158398014546386 0.4999999999999999
1.567844680800096 0.1579199007273193 0.6666666666666666
1.567844680800096 0.1579199007273193 0.5
1.757126241066794 0.3216709787475369 0.8333333333333333
1.711896453866731 0.1608354893737685 0.8333333333333333
1.635689361600192 0.3158398014546386 0.8333333333333333
1.567844680800096 0.1579199007273193 0.8333333333333333
1.757126241066794 0.6783290212524633 0.1666666666666667
1.757126241066794 0.5000000000000001 0.3333333333333333
1.635689361600192 0.6841601985453617 0.3333333333333333
1.757126241066794 0.5000000000000001 0.1666666666666667
1.635689361600192 0.6841601985453616 0.1666666666666667
1.635689361600192 0.5000000000000001 0.3333333333333333
1.635689361600192 0.5000000000000002 0.1666666666666667
1.757126241066794 0.6783290212524633 0.5
1.757126241066794 0.5000000000000001 0.6666666666666666
1.635689361600192 0.6841601985453617 0.6666666666666666
1.757126241066794 0.5000000000000001 0.4999999999999999
1.635689361600192 0.6841601985453616 0.4999999999999999
1.635689361600192 0.5000000000000001 0.6666666666666666
1.635689361600192 0.5000000000000001 0.5
1.757126241066794 0.6783290212524633 0.8333333333333333
1.757126241066794 0.5000000000000001 0.8333333333333333
1.635689361600192 0.6841601985453616 0.8333333333333333
1.635689361600192 0.5000000000000002 0.8333333333333333
1.711896453866731 0.8391645106262317 0.3333333333333333
1.711896453866731 0.8391645106262315 0.1666666666666667
1.567844680800096 0.8420800992726809 0.3333333333333333
1.567844680800096 0.8420800992726811 0.1666666666666667
1.711896453866731 0.8391645106262317 0.6666666666666666
1.711896453866731 0.8391645106262315 0.4999999999999999
1.567844680800096 0.8420800992726809 0.6666666666666666
1.567844680800096 0.8420800992726811 0.5
1.711896453866731 0.8391645106262315 0.8333333333333333
1.567844680800096 0.8420800992726811 0.8333333333333333
1.878563120533397 0.3275021560404351 0.3333333333333333
1.878563120533397 0.3275021560404351 0.1666666666666667
1.855948226933365 0.1637510780202175 0.3333333333333333
1.855948226933366 0.1637510780202175 0.1666666666666667
1.878563120533397 0.3275021560404351 0.6666666666666666
1.878563120533397 0.3275021560404351 0.4999999999999999
1.855948226933365 0.1637510780202175 0.6666666666666666
1.855948226933366 0.1637510780202175 0.5
1.878563120533397 0.3275021560404351 0.8333333333333333
1.855948226933366 0.1637510780202175 0.8333333333333333
1.878563120533397 0.672497843959565 0.3333333333333333
1.878563120533397 0.672497843959565 0.1666666666666667
1.878563120533397 0.5000000000000001 0.3333333333333333
1.878563120533397 0.5000000000000002 0.1666666666666667
1.878563120533397 0.672497843959565 0.6666666666666666
1.878563120533397 0.672497843959565 0.4999999999999999
1.878563120533397 0.5000000000000001 0.6666666666666666
1.878563120533397 0.5000000000000002 0.5
1.878563120533397 0.672497843959565 0.8333333333333333
1.878563120533397 0.5000000000000002 0.8333333333333333
1.855948226933365 0.8362489219797824 0.3333333333333333
1.855948226933366 0.8362489219797826 0.1666666666666667
1.855948226933365 0.8362489219797824 0.6666666666666666
1.855948226933365 0.8362489219797826 0.5
1.855948226933365 0.8362489219797826 0.8333333333333333

CELLS 113 1760
9 0 16 112 25 17 113 114 27 115
9 25 112 22 3 114 116 24 26 117
9 16 1 19 112 18 20 118 113 119
9 112 19 2 22 118 21 23 116 120
9 0 16 121 28 17 122 123 29 124
9 28 121 34 4 123 125 35 30 126
9 16 1 31 121 18 32 127 122 128
9 121 31 5 34 127 33 36 125 129
9 1 19 130 31 20 131 132 32 133
9 31 130 40 5 132 134 41 33 135
9 19 2 37 130 21 38 136 131 137
9 130 37 6 40 136 39 42 134 138
9 2 22 139 37 23 140 141 38 142
9 37 139 46 6 141 143 47 39 144
9 22 3 43 139 24 44 145 140 146
9 139 43 7 46 145 45 48 143 147
9 3 25 148 43 26 149 150 44 151
9 43 148 49 7 150 152 50 45 153
9 25 0 28 148 27 29 154 149 155
9 148 28 4 49 154 30 51 152 156
9 4 34 157 49 35 158 159 51 160
9 49 157 46 7 159 161 48 50 162
9 34 5 40 157 36 41 163 158 164
9 157 40 6 46 163 42 47 161 165
9 8 52 166 68 54 170 171 71 172
9 68 166 167 67 171 173 174 70 175
9 67 167 63 11 174 176 66 69 177
9 52 53 168 166 55 178 179 170 180
9 166 168 169 167 179 181 182 173 183
9 167 169 62 63 182 184 65 176 185
9 53 9 57 168 56 59 186 178 187
9 168 57 58 169 186 60 188 181 189
9 169 58 10 62 188 61 64 184 190
9 8 52 191 72 54 195 196 74 197
9 72 191 192 73 196 198 199 75 200
9 73 192 82 12 199 201 84 76 202
9 52 53 193 191 55 203 204 195 205
9 191 193 194 192 204 206 207 198 208
9 192 194 83 82 207 209 85 201 210
9 53 9 77 193 56 79 211 203 212
9 193 77 78 194 211 80 213 206 214
9 194 78 13 83 213 81 86 209 215
9 9 57 216 77 59 220 221 79 222
9 77 216 217 78 221 223 224 80 225
9 78 217 92 13 224 226 94 81 227
9 57 58 218 216 60 228 229 220 230
9 216 218 219 217 229 231 232 223 233
9 217 219 93 92 232 234 95 226 235
9 58 10 87 218 61 89 236 228 237
9 218 87 88 219 236 90 238 231 239
9 219 88 14 93 238 91 96 234 240
9 10 62 241 87 64 245 246 89 247
9 87 241 242 88 246 248 249 90 250
9 88 242 102 14 249 251 104 91 252
9 62 63 243 241 65 253 254 245 255
9 241 243 244 242 254 256 257 248 258
9 242 244 103 102 257 259 105 251 260
9 63 11 97 243 66 99 261 253 262
9 243 97 98 244 261 100 263 256 264
9 244 98 15 103 263 101 106 259 265
9 11 67 266 97 69 270 271 99 272
9 97 266 267 98 271 273 274 100 275
9 98 267 107 15 274 276 109 101 277
9 67 68 268 266 70 278 279 270 280
9 266 268 269 267 279 281 282 273 283
9 267 269 108 107 282 284 110 276 285
9 68 8 72 268 71 74 286 278 287
9 268 72 73 269 286 75 288 281 289
9 269 73 12 108 288 76 111 284 290
9 12 82 291 108 84 295 296 111 297
9 108 291 292 107 296 298 299 110 300
9 107 292 103 15 299 301 106 109 302
9 82 83 293 291 85 303 304 295 305
9 291 293 294 292 304 306 307 298 308
9 292 294 102 103 307 309 105 301 310
9 83 13 92 293 86 94 311 303 312
9 293 92 93 294 311 95 313 306 314
9 294 93 14 102 313 96 104 309 315
27 0 16 112 25 28 121 316 148 17 113 114 27 123 318 319 154 29 122 317 149 155 320 124 321 115 322 323
27 28 121 316 148 4 34 157 49 123 318 319 154 35 158 159 51 30 125 324 152 156 325 126 326 322 160 327
27 25 112 22 3 148 316 139 43 114 116 24 26 319 328 145 150 149 317 140 44 151 329 321 146 117 330 331
27 148 316 139 43 49 157 46 7 319 328 145 150 159 161 48 50 152 324 143 45 153 332 326 147 330 162 333
27 16 1 19 112 121 31 130 316 18 20 118 113 127 132 334 318 122 32 131 317 320 133 128 335 119 336 337
27 121 31 130 316 34 5 40 157 127 132 334 318 36 41 163 158 125 33 134 324 325 135 129 338 336 164 339
27 112 19 2 22 316 130 37 139 118 21 23 116 334 136 141 328 317 131 38 140 329 137 335 142 120 340 341
27 316 130 37 139 157 40 6 46 334 136 141 328 163 42 47 161 324 134 39 143 332 138 338 144 340 165 342
27 8 52 166 68 72 191 343 268 54 170 171 71 196 352 353 286 74 195 351 278 287 354 197 355 172 356 357
27 72 191 343 268 73 192 344 269 196 352 353 286 199 359 360 288 75 198 358 281 289 361 200 362 356 363 364
27 73 192 344 269 12 82 291 108 199 359 360 288 84 295 296 111 76 201 365 284 290 366 202 367 363 297 368
27 68 166 167 67 268 343 345 266 171 173 174 70 353 370 371 279 278 351 369 270 280 372 355 373 175 374 375
27 268 343 345 266 269 344 346 267 353 370 371 279 360 377 378 282 281 358 376 273 283 379 362 380 374 381 382
27 269 344 346 267 108 291 292 107 360 377 378 282 296 298 299 110 284 365 383 276 285 384 367 385 381 300 386
27 67 167 63 11 266 345 243 97 174 176 66 69 371 387 261 271 270 369 253 99 272 388 373 262 177 389 390
27 266 345 243 97 267 346 244 98 371 387 261 271 378 391 263 274 273 376 256 100 275 392 380 264 389 393 394
27 267 346 244 98 107 292 103 15 378 391 263 274 299 301 106 109 276 383 259 101 277 395 385 265 393 302 396
27 52 53 168 166 191 193 347 343 55 178 179 170 204 398 399 352 195 203 397 351 354 400 205 401 180 402 403
27 191 193 347 343 192 194 348 344 204 398 399 352 207 405 406 359 198 206 404 358 361 407 208 408 402 409 410
27 192 194 348 344 82 83 293 291 207 405 406 359 85 303 304 295 201 209 411 365 366 412 210 413 409 305 414
27 166 168 169 167 343 347 349 345 179 181 182 173 399 416 417 370 351 397 415 369 372 418 401 419 183 420 421
27 343 347 349 345 344 348 350 346 399 416 417 370 406 423 424 377 358 404 422 376 379 425 408 426 420 427 428
27 344 348 350 346 291 293 294 292 406 423 424 377 304 306 307 298 365 411 429 383 384 430 413 431 427 308 432
27 167 169 62 63 345 349 241 243 182 184 65 176 417 433 254 387 369 415 245 253 388 434 419 255 185 435 436
27 345 349 241 243 346 350 242 244 417 433 254 387 424 437 257 391 376 422 248 256 392 438 426 258 435 439 440
27 346 350 242 244 292 294 102 103 424 437 257 391 307 309 105 301 383 429 251 259 395 441 431 260 439 310 442
27 53 9 57 168 193 77 216 347 56 59 186 178 211 221 443 398 203 79 220 397 400 222 212 444 187 445 446
27 193 77 216 347 194 78 217 348 211 221 443 398 213 224 447 405 206 80 223 404 407 225 214 448 445 449 450
27 194 78 217 348 83 13 92 293 213 224 447 405 86 94 311 303 209 81 226 411 412 227 215 451 449 312 452
27 168 57 58 169 347 216 218 349 186 60 188 181 443 229 453 416 397 220 228 415 418 230 444 454 189 455 456
27 347 216 218 349 348 217 219 350 443 229 453 416 447 232 457 423 404 223 231 422 425 233 448 458 455 459 460
27 348 217 219 350 293 92 93 294 447 232 457 423 311 95 313 306 411 226 234 429 430 235 451 461 459 314 462
27 169 58 10 62 349 218 87 241 188 61 64 184 453 236 246 433 415 228 89 245 434 237 454 247 190 463 464
27 349 218 87 241 350 219 88 242 453 236 246 433 457 238 249 437 422 231 90 248 438 239 458 250 463 465 466
27 350 219 88 242 294 93 14 102 457 238 249 437 313 96 104 309 429 234 91 251 441 240 461 252 465 315 467

CELL_TYPES 113
28
28
28
28
28
28
28
28
28
28
28
28
28
28
28
28
28
28
28
28
28
28
28
28
28
28
28
28
28
28
28
28
28
28
28
28
28
28
28
28
28
28
28
28
28
28
28
28
28
28
28
28
28
28
28
28
28
28
28
28
28
28
28
28
28
28
28
28
28
28
28
28
28
28
28
28
28
28
29
29
29
29
29
29
29
29
29
29
29
29
29
29
29
29
29
29
29
29
29
29
29
29
29
29
29
29
29
29
29
29
29
29
29

CELL_DATA 113
SCALARS CellEntityIds int 1
LOOKUP_TABLE default
2
2
2
2
2
2
2
2
1
1
1
1
2
2
2
2
2
2
2
2
2
2
2
2
4
4
4
4
4
4
4
4
4
4
4
4
4
4
4
4
4
4
4
4
4
4
4
4
4
4
4
4
4
4
4
4
4
4
4
4
3
3
3
3
3
3
3
3
3
4
4
4
4
4
4
4
4
4
1
1
1
1
1
1
1
1
2
2
2
2
2
2
2
2
2
2
2
2
2
2
2
2
2
2
2
2
2
2
2
2
2
2
2
