# vtk DataFile Version 2.0
domain, Created by Gmsh 4.13.1 
ASCII
DATASET UNSTRUCTURED_GRID
POINTS 222 double
0 0 0
0.5 0 0
0.5 1 0
0 1 0
0 0 1
0.5 0 1
0.5 1 1
0 1 1
0.5 0 0
1 0 0
1 1 0
0.5 1 0
0.5 0 1
1 0 1
1 1 1
0.5 1 1
0.25 0 0
0.5 0.5 0
0.5 0.25 0
0.5 0.75 0
0.25 1 0
0 0.5 0
0 0.75 0
0 0.25 0
0 0 0.5
0 0 0.25
0 0 0.75
0.5 0 0.5
0.5 0 0.25
0.5 0 0.75
0.25 0 1
0.5 1 0.5
0.5 1 0.25
0.5 1 0.75
0.5 0.5 1
0.5 0.25 1
0.5 0.75 1
0 1 0.5
0 1 0.25
0 1 0.75
0.25 1 1
0 0.5 1
0 0.75 1
0 0.25 1
0.75 0 0
1 0.3333333333333333 0
1 0.6666666666666666 0
1 0.1666666666666667 0
1 0.5 0
1 0.8333333333333333 0
0.75 1 0
0.5 0.6666666666666667 0
0.5 0.3333333333333334 0
0.5 0.8333333333333334 0
0.5 0.5 0
0.5 0.1666666666666667 0
0.5 0 0.3333333333333333
0.5 0 0.6666666666666666
0.5 0 0.1666666666666667
0.5 0 0.5
0.5 0 0.8333333333333333
1 0 0.3333333333333333
1 0 0.6666666666666666
1 0 0.1666666666666667
1 0 0.5
1 0 0.8333333333333333
0.75 0 1
1 1 0.3333333333333333
1 1 0.6666666666666666
1 1 0.1666666666666667
1 1 0.5
1 1 0.8333333333333333
1 0.3333333333333333 1
1 0.6666666666666666 1
1 0.1666666666666667 1
1 0.5 1
1 0.8333333333333333 1
0.5 1 0.3333333333333333
0.5 1 0.6666666666666666
0.5 1 0.1666666666666667
0.5 1 0.5
0.5 1 0.8333333333333333
0.75 1 1
0.5 0.6666666666666667 1
0.5 0.3333333333333334 1
0.5 0.8333333333333334 1
0.5 0.5 1
0.5 0.1666666666666667 1
0.25 0.5 0
0.25 0.25 0
0.25 0.75 0
0.25 0 0.5
0.25 0 0.25
0.25 0 0.75
0.5 0.5 0.5
0.5 0.5 0.25
0.5 0.25 0.5
0.5 0.25 0.25
0.5 0.5 0.75
0.5 0.25 0.75
0.5 0.75 0.5
0.5 0.75 0.25
0.5 0.75 0.75
0.25 1 0.5
0.25 1 0.25
0.25 1 0.75
0 0.5 0.5
0 0.5 0.25
0 0.75 0.5
0 0.75 0.25
0 0.5 0.75
0 0.75 0.75
0 0.25 0.5
0 0.25 0.25
0 0.25 0.75
0.25 0.5 1
0.25 0.25 1
0.25 0.75 1
0.75 0.3333333333333334 0
0.75 0.1666666666666667 0
0.75 0.6666666666666666 0
0.75 0.5 0
0.75 0.8333333333333333 0
0.75 0 0.3333333333333333
0.75 0 0.1666666666666667
0.75 0 0.6666666666666666
0.75 0 0.4999999999999999
0.75 0 0.8333333333333333
1 0.3333333333333333 0.3333333333333333
1 0.3333333333333333 0.6666666666666666
1 0.6666666666666666 0.3333333333333333
1 0.6666666666666666 0.6666666666666666
1 0.3333333333333333 0.1666666666666667
1 0.1666666666666667 0.3333333333333333
1 0.1666666666666667 0.1666666666666667
1 0.3333333333333333 0.5
1 0.1666666666666667 0.6666666666666666
1 0.1666666666666667 0.4999999999999999
1 0.3333333333333333 0.8333333333333333
1 0.1666666666666667 0.8333333333333333
1 0.6666666666666666 0.1666666666666667
1 0.5 0.3333333333333333
1 0.5 0.1666666666666667
1 0.6666666666666666 0.5
1 0.5 0.6666666666666666
1 0.5 0.4999999999999999
1 0.6666666666666666 0.8333333333333333
1 0.5 0.8333333333333333
1 0.8333333333333333 0.3333333333333333
1 0.8333333333333333 0.1666666666666667
1 0.8333333333333333 0.6666666666666666
1 0.8333333333333333 0.4999999999999999
1 0.8333333333333333 0.8333333333333333
0.75 1 0.3333333333333333
0.75 1 0.1666666666666667
0.75 1 0.6666666666666666
0.75 1 0.4999999999999999
0.75 1 0.8333333333333333
0.5 0.6666666666666667 0.3333333333333333
0.5 0.6666666666666667 0.6666666666666666
0.5 0.3333333333333334 0.3333333333333333
0.5 0.3333333333333334 0.6666666666666666
0.5 0.6666666666666667 0.1666666666666667
0.5 0.8333333333333334 0.3333333333333333
0.5 0.8333333333333334 0.1666666666666667
0.5 0.6666666666666667 0.5
0.5 0.8333333333333334 0.6666666666666666
0.5 0.8333333333333334 0.4999999999999999
0.5 0.6666666666666667 0.8333333333333333
0.5 0.8333333333333334 0.8333333333333333
0.5 0.3333333333333334 0.1666666666666667
0.5 0.5 0.3333333333333333
0.5 0.5 0.1666666666666667
0.5 0.3333333333333334 0.5
0.5 0.5 0.6666666666666666
0.5 0.5 0.4999999999999999
0.5 0.3333333333333334 0.8333333333333333
0.5 0.5 0.8333333333333333
0.5 0.1666666666666667 0.3333333333333333
0.5 0.1666666666666667 0.1666666666666667
0.5 0.1666666666666667 0.6666666666666666
0.5 0.1666666666666667 0.4999999999999999
0.5 0.1666666666666667 0.8333333333333333
0.75 0.3333333333333334 1
0.75 0.1666666666666667 1
0.75 0.6666666666666666 1
0.75 0.5 1
0.75 0.8333333333333333 1
0.25 0.5 0.5
0.25 0.5 0.25
0.25 0.25 0.5
0.25 0.25 0.25
0.25 0.5 0.75
0.25 0.25 0.75
0.25 0.75 0.5
0.25 0.75 0.25
0.25 0.75 0.75
0.75 0.3333333333333334 0.3333333333333333
0.75 0.3333333333333334 0.1666666666666667
0.75 0.1666666666666667 0.3333333333333333
0.75 0.1666666666666667 0.1666666666666667
0.75 0.3333333333333334 0.6666666666666666
0.75 0.3333333333333334 0.4999999999999999
0.75 0.1666666666666667 0.6666666666666666
0.75 0.1666666666666667 0.5
0.75 0.3333333333333334 0.8333333333333333
0.75 0.1666666666666667 0.8333333333333333
0.75 0.6666666666666667 0.3333333333333333
0.75 0.6666666666666667 0.1666666666666667
0.75 0.5 0.3333333333333333
0.75 0.5000000000000001 0.1666666666666667
0.75 0.6666666666666667 0.6666666666666666
0.75 0.6666666666666667 0.4999999999999999
0.75 0.5 0.6666666666666666
0.75 0.5000000000000001 0.5
0.75 0.6666666666666667 0.8333333333333333
0.75 0.5000000000000001 0.8333333333333333
0.75 0.8333333333333333 0.3333333333333333
0.75 0.8333333333333333 0.1666666666666667
0.75 0.8333333333333333 0.6666666666666666
0.75 0.8333333333333333 0.5
0.75 0.8333333333333333 0.8333333333333333

CELLS 59 824
9 0 1 17 21 16 18 88 23 89
9 21 17 2 3 88 19 20 22 90
9 0 1 27 24 16 28 91 25 92
9 24 27 5 4 91 29 30 26 93
9 1 17 94 27 18 95 96 28 97
9 27 94 34 5 96 98 35 29 99
9 17 2 31 94 19 32 100 95 101
9 94 31 6 34 100 33 36 98 102
9 2 3 37 31 20 38 103 32 104
9 31 37 7 6 103 39 40 33 105
9 3 21 106 37 22 107 108 38 109
9 37 106 41 7 108 110 42 39 111
9 21 0 24 106 23 25 112 107 113
9 106 24 4 41 112 26 43 110 114
9 4 5 34 41 30 35 115 43 116
9 41 34 6 7 115 36 40 42 117
9 8 9 45 52 44 47 118 55 119
9 52 45 46 51 118 48 120 54 121
9 51 46 10 11 120 49 50 53 122
9 8 9 61 56 44 63 123 58 124
9 56 61 62 57 123 64 125 59 126
9 57 62 13 12 125 65 66 60 127
9 9 45 128 61 47 132 133 63 134
9 61 128 129 62 133 135 136 64 137
9 62 129 72 13 136 138 74 65 139
9 45 46 130 128 48 140 141 132 142
9 128 130 131 129 141 143 144 135 145
9 129 131 73 72 144 146 75 138 147
9 46 10 67 130 49 69 148 140 149
9 130 67 68 131 148 70 150 143 151
9 131 68 14 73 150 71 76 146 152
9 10 11 77 67 50 79 153 69 154
9 67 77 78 68 153 80 155 70 156
9 68 78 15 14 155 81 82 71 157
9 11 51 158 77 53 162 163 79 164
9 77 158 159 78 163 165 166 80 167
9 78 159 83 15 166 168 85 81 169
9 51 52 160 158 54 170 171 162 172
9 158 160 161 159 171 173 174 165 175
9 159 161 84 83 174 176 86 168 177
9 52 8 56 160 55 58 178 170 179
9 160 56 57 161 178 59 180 173 181
9 161 57 12 84 180 60 87 176 182
9 12 13 72 84 66 74 183 87 184
9 84 72 73 83 183 75 185 86 186
9 83 73 14 15 185 76 82 85 187
27 0 1 17 21 24 27 94 106 16 18 88 23 91 96 188 112 25 28 95 107 113 97 92 189 89 190 191
27 24 27 94 106 4 5 34 41 91 96 188 112 30 35 115 43 26 29 98 110 114 99 93 192 190 116 193
27 21 17 2 3 106 94 31 37 88 19 20 22 188 100 103 108 107 95 32 38 109 101 189 104 90 194 195
27 106 94 31 37 41 34 6 7 188 100 103 108 115 36 40 42 110 98 33 39 111 102 192 105 194 117 196
27 8 9 45 52 56 61 128 160 44 47 118 55 123 133 197 178 58 63 132 170 179 134 124 198 119 199 200
27 56 61 128 160 57 62 129 161 123 133 197 178 125 136 201 180 59 64 135 173 181 137 126 202 199 203 204
27 57 62 129 161 12 13 72 84 125 136 201 180 66 74 183 87 60 65 138 176 182 139 127 205 203 184 206
27 52 45 46 51 160 128 130 158 118 48 120 54 197 141 207 171 170 132 140 162 172 142 198 208 121 209 210
27 160 128 130 158 161 129 131 159 197 141 207 171 201 144 211 174 173 135 143 165 175 145 202 212 209 213 214
27 161 129 131 159 84 72 73 83 201 144 211 174 183 75 185 86 176 138 146 168 177 147 205 215 213 186 216
27 51 46 10 11 158 130 67 77 120 49 50 53 207 148 153 163 162 140 69 79 164 149 208 154 122 217 218
27 158 130 67 77 159 131 68 78 207 148 153 163 211 150 155 166 165 143 70 80 167 151 212 156 217 219 220
27 159 131 68 78 83 73 14 15 211 150 155 166 185 76 82 85 168 146 71 81 169 152 215 157 219 187 221

CELL_TYPES 59
28
28
28
28
28
28
28
28
28
28
28
28
28
28
28
28
28
28
28
28
28
28
28
28
28
28
28
28
28
28
28
28
28
28
28
28
28
28
28
28
28
28
28
28
28
28
29
29
29
29
29
29
29
29
29
29
29
29
29

CELL_DATA 59
SCALARS CellEntityIds int 1
LOOKUP_TABLE default
2
2
2
2
1
1
1
1
2
2
2
2
2
2
2
2
4
4
4
4
4
4
4
4
4
4
4
4
4
4
4
4
4
4
3
3
3
3
3
3
3
3
3
4
4
4
1
1
1
1
2
2
2
2
2
2
2
2
2
