# vtk DataFile Version 2.0
domain, Created by Gmsh 4.13.1 
ASCII
DATASET UNSTRUCTURED_GRID
POINTS 225 double
0 0 0
2 0 0
2 1 0
0 1 0
0 0 1
2 0 1
2 1 1
0 1 1
0.4999999999988219 0 0
0.9999999999973842 0 0
1.499999999998681 0 0
0.2499999999995504 0 0
0.7499999999981031 0 0
1.249999999998033 0 0
1.749999999999341 0 0
2 0.4999999999986921 0
2 0.2499999999994184 0
2 0.7499999999993461 0
1.500000000000694 1 0
1.000000000004119 1 0
0.500000000002081 1 0
1.75000000000001 1 0
1.250000000002018 1 0
0.7500000000031 1 0
0.2500000000010405 1 0
0 0.5000000000020595 0
0 0.7500000000007601 0
0 0.2500000000010297 0
0.4999999999988219 0 1
0.9999999999973842 0 1
1.499999999998681 0 1
0.2499999999995504 0 1
0.7499999999981031 0 1
1.249999999998033 0 1
1.749999999999341 0 1
2 0.4999999999986921 1
2 0.2499999999994184 1
2 0.7499999999993461 1
1.500000000000694 1 1
1.000000000004119 1 1
0.500000000002081 1 1
1.75000000000001 1 1
1.250000000002018 1 1
0.7500000000031 1 1
0.2500000000010405 1 1
0 0.5000000000020595 1
0 0.7500000000007601 1
0 0.2500000000010297 1
0 0 0.5
0 0 0.2500000000000723
0 0 0.75
2 0 0.5
2 0 0.2500000000000723
2 0 0.75
2 1 0.5
2 1 0.2500000000000723
2 1 0.75
0 1 0.5
0 1 0.2500000000000723
0 1 0.75
0.5000000000004514 0.5000000000012176 0
1.000000000000751 0.5000000000003758 0
1.499999999999688 0.4999999999995339 0
0.4999999999996366 0.2500000000006088 0
0.2500000000002257 0.5000000000016385 0
0.249999999999888 0.2500000000008192 0
0.5000000000012662 0.7500000000006088 0
0.2500000000006331 0.7500000000006845 0
0.9999999999990679 0.2500000000001879 0
0.7500000000006014 0.5000000000007967 0
0.7499999999993522 0.2500000000003983 0
1.000000000002435 0.7500000000001878 0
0.7500000000018505 0.7500000000003983 0
1.499999999999184 0.249999999999767 0
1.250000000000219 0.4999999999999549 0
1.249999999999126 0.2499999999999774 0
1.500000000000191 0.749999999999767 0
1.250000000001119 0.7499999999999774 0
1.749999999999844 0.499999999999113 0
1.749999999999592 0.2499999999995927 0
1.749999999999927 0.7499999999995566 0
0.4999999999988219 0 0.5
0.9999999999973842 0 0.5
1.499999999998681 0 0.5
0.4999999999988219 0 0.25
0.2499999999994109 0 0.5
0.2499999999994806 0 0.2500000000000362
0.4999999999988218 0 0.75
0.2499999999994806 0 0.75
0.9999999999973842 0 0.25
0.7499999999981031 0 0.5
0.7499999999981031 0 0.25
0.9999999999973842 0 0.75
0.7499999999981031 0 0.75
1.499999999998681 0 0.25
1.249999999998033 0 0.5
1.249999999998033 0 0.25
1.499999999998681 0 0.75
1.249999999998033 0 0.75
1.749999999999341 0 0.5
1.749999999999341 0 0.2500000000000362
1.749999999999341 0 0.75
2 0.4999999999986921 0.5
2 0.4999999999993461 0.25
2 0.25 0.5
2 0.2500000000000362 0.2500000000000362
2 0.4999999999993461 0.75
2 0.2500000000000362 0.75
2 0.75 0.5
2 0.75 0.2500000000000362
2 0.75 0.75
1.500000000000694 1 0.5
1.000000000004119 1 0.5
0.500000000002081 1 0.5
1.500000000000694 1 0.25
1.750000000000347 1 0.5
1.750000000000179 1 0.2500000000000362
1.500000000000694 1 0.75
1.750000000000179 1 0.75
1.000000000004119 1 0.25
1.250000000002407 1 0.5
1.250000000002212 1 0.25
1.000000000004119 1 0.75
1.250000000002212 1 0.75
0.500000000002081 1 0.25
0.7500000000031 1 0.5
0.7500000000031 1 0.25
0.500000000002081 1 0.75
0.7500000000031 1 0.75
0.2500000000010405 1 0.5
0.2500000000010405 1 0.2500000000000362
0.2500000000010405 1 0.75
0 0.5000000000020595 0.5
0 0.5000000000020595 0.25
0 0.7500000000010297 0.5
0 0.7500000000008948 0.2500000000000362
0 0.5000000000020595 0.75
0 0.7500000000008948 0.75
0 0.2500000000010297 0.5
0 0.2500000000010297 0.2500000000000362
0 0.2500000000010297 0.75
0.5000000000004514 0.5000000000012176 1
1.000000000000751 0.5000000000003758 1
1.499999999999688 0.4999999999995339 1
0.4999999999996366 0.2500000000006088 1
0.2500000000002257 0.5000000000016385 1
0.249999999999888 0.2500000000008192 1
0.5000000000012662 0.7500000000006088 1
0.2500000000006331 0.7500000000006845 1
0.9999999999990679 0.2500000000001879 1
0.7500000000006014 0.5000000000007967 1
0.7499999999993522 0.2500000000003983 1
1.000000000002435 0.7500000000001878 1
0.7500000000018505 0.7500000000003983 1
1.499999999999184 0.249999999999767 1
1.250000000000219 0.4999999999999549 1
1.249999999999126 0.2499999999999774 1
1.500000000000191 0.749999999999767 1
1.250000000001119 0.7499999999999774 1
1.749999999999844 0.499999999999113 1
1.749999999999592 0.2499999999995927 1
1.749999999999927 0.7499999999995566 1
0.5000000000004514 0.5000000000012176 0.5
1.000000000000751 0.5000000000003758 0.5
1.499999999999688 0.4999999999995339 0.5
0.5000000000004514 0.5000000000012176 0.25
0.4999999999996366 0.2500000000006088 0.5
0.2500000000002257 0.5000000000016385 0.5
0.4999999999996366 0.2500000000006088 0.25
0.2500000000002257 0.5000000000016385 0.25
0.2499999999998183 0.2500000000008192 0.5
0.2499999999998532 0.2500000000008192 0.2500000000000181
0.5000000000004514 0.5000000000012176 0.75
0.4999999999996366 0.2500000000006088 0.75
0.2500000000002257 0.5000000000016385 0.75
0.2499999999998532 0.2500000000008192 0.75
0.5000000000012662 0.7500000000006088 0.5
0.5000000000012662 0.7500000000006088 0.25
0.2500000000006331 0.7500000000008193 0.5
0.250000000000633 0.7500000000007517 0.2500000000000181
0.5000000000012662 0.7500000000006088 0.75
0.250000000000633 0.7500000000007518 0.75
1.000000000000751 0.5000000000003758 0.25
0.9999999999990679 0.2500000000001879 0.5
0.7500000000006014 0.5000000000007967 0.5
0.9999999999990679 0.2500000000001879 0.25
0.7500000000006014 0.5000000000007967 0.25
0.7499999999993522 0.2500000000003983 0.5
0.7499999999993522 0.2500000000003983 0.25
1.000000000000751 0.5000000000003758 0.75
0.9999999999990679 0.2500000000001879 0.75
0.7500000000006014 0.5000000000007967 0.75
0.7499999999993522 0.2500000000003983 0.75
1.000000000002435 0.7500000000001878 0.5
1.000000000002435 0.7500000000001878 0.25
0.7500000000018505 0.7500000000003983 0.5
0.7500000000018503 0.7500000000003983 0.25
1.000000000002435 0.7500000000001878 0.75
0.7500000000018503 0.7500000000003983 0.75
1.499999999999688 0.4999999999995339 0.25
1.499999999999184 0.249999999999767 0.5
1.250000000000219 0.4999999999999549 0.5
1.499999999999184 0.249999999999767 0.25
1.250000000000219 0.4999999999999549 0.25
1.249999999999126 0.2499999999999774 0.5
1.249999999999126 0.2499999999999775 0.25
1.499999999999688 0.4999999999995339 0.75
1.499999999999184 0.249999999999767 0.75
1.250000000000219 0.4999999999999549 0.75
1.249999999999126 0.2499999999999775 0.75
1.500000000000191 0.749999999999767 0.5
1.500000000000191 0.7499999999997671 0.25
1.250000000001313 0.7499999999999774 0.5
1.250000000001215 0.7499999999999776 0.25
1.500000000000191 0.7499999999997671 0.75
1.250000000001215 0.7499999999999776 0.75
1.749999999999844 0.499999999999113 0.5
1.749999999999844 0.49999999999944 0.25
1.749999999999592 0.2499999999998835 0.5
1.749999999999592 0.2499999999999016 0.2500000000000181
1.749999999999844 0.49999999999944 0.75
1.749999999999592 0.2499999999999016 0.75
1.750000000000095 0.7499999999998834 0.5
1.750000000000012 0.7499999999998836 0.2500000000000181
1.750000000000012 0.7499999999998836 0.75

CELLS 56 848
9 0 8 60 25 11 63 64 27 65
9 25 60 20 3 64 66 24 26 67
9 8 9 61 60 12 68 69 63 70
9 60 61 19 20 69 71 23 66 72
9 9 10 62 61 13 73 74 68 75
9 61 62 18 19 74 76 22 71 77
9 10 1 15 62 14 16 78 73 79
9 62 15 2 18 78 17 21 76 80
9 0 8 81 48 11 84 85 49 86
9 48 81 28 4 85 87 31 50 88
9 8 9 82 81 12 89 90 84 91
9 81 82 29 28 90 92 32 87 93
9 9 10 83 82 13 94 95 89 96
9 82 83 30 29 95 97 33 92 98
9 10 1 51 83 14 52 99 94 100
9 83 51 5 30 99 53 34 97 101
9 1 15 102 51 16 103 104 52 105
9 51 102 35 5 104 106 36 53 107
9 15 2 54 102 17 55 108 103 109
9 102 54 6 35 108 56 37 106 110
9 2 18 111 54 21 114 115 55 116
9 54 111 38 6 115 117 41 56 118
9 18 19 112 111 22 119 120 114 121
9 111 112 39 38 120 122 42 117 123
9 19 20 113 112 23 124 125 119 126
9 112 113 40 39 125 127 43 122 128
9 20 3 57 113 24 58 129 124 130
9 113 57 7 40 129 59 44 127 131
9 3 25 132 57 26 133 134 58 135
9 57 132 45 7 134 136 46 59 137
9 25 0 48 132 27 49 138 133 139
9 132 48 4 45 138 50 47 136 140
9 4 28 141 45 31 144 145 47 146
9 45 141 40 7 145 147 44 46 148
9 28 29 142 141 32 149 150 144 151
9 141 142 39 40 150 152 43 147 153
9 29 30 143 142 33 154 155 149 156
9 142 143 38 39 155 157 42 152 158
9 30 5 35 143 34 36 159 154 160
9 143 35 6 38 159 37 41 157 161
27 0 8 60 25 48 81 162 132 11 63 64 27 85 166 167 138 49 84 165 133 139 168 86 169 65 170 171
27 48 81 162 132 4 28 141 45 85 166 167 138 31 144 145 47 50 87 172 136 140 173 88 174 170 146 175
27 25 60 20 3 132 162 113 57 64 66 24 26 167 176 129 134 133 165 124 58 135 177 169 130 67 178 179
27 132 162 113 57 45 141 40 7 167 176 129 134 145 147 44 46 136 172 127 59 137 180 174 131 178 148 181
27 8 9 61 60 81 82 163 162 12 68 69 63 90 183 184 166 84 89 182 165 168 185 91 186 70 187 188
27 81 82 163 162 28 29 142 141 90 183 184 166 32 149 150 144 87 92 189 172 173 190 93 191 187 151 192
27 60 61 19 20 162 163 112 113 69 71 23 66 184 193 125 176 165 182 119 124 177 194 186 126 72 195 196
27 162 163 112 113 141 142 39 40 184 193 125 176 150 152 43 147 172 189 122 127 180 197 191 128 195 153 198
27 9 10 62 61 82 83 164 163 13 73 74 68 95 200 201 183 89 94 199 182 185 202 96 203 75 204 205
27 82 83 164 163 29 30 143 142 95 200 201 183 33 154 155 149 92 97 206 189 190 207 98 208 204 156 209
27 61 62 18 19 163 164 111 112 74 76 22 71 201 210 120 193 182 199 114 119 194 211 203 121 77 212 213
27 163 164 111 112 142 143 38 39 201 210 120 193 155 157 42 152 189 206 117 122 197 214 208 123 212 158 215
27 10 1 15 62 83 51 102 164 14 16 78 73 99 104 216 200 94 52 103 199 202 105 100 217 79 218 219
27 83 51 102 164 30 5 35 143 99 104 216 200 34 36 159 154 97 53 106 206 207 107 101 220 218 160 221
27 62 15 2 18 164 102 54 111 78 17 21 76 216 108 115 210 199 103 55 114 211 109 217 116 80 222 223
27 164 102 54 111 143 35 6 38 216 108 115 210 159 37 41 157 206 106 56 117 214 110 220 118 222 161 224

CELL_TYPES 56
28
28
28
28
28
28
28
28
28
28
28
28
28
28
28
28
28
28
28
28
28
28
28
28
28
28
28
28
28
28
28
28
28
28
28
28
28
28
28
28
29
29
29
29
29
29
29
29
29
29
29
29
29
29
29
29

CELL_DATA 56
SCALARS CellEntityIds int 1
LOOKUP_TABLE default
1
1
1
1
1
1
1
1
1
1
1
1
1
1
1
1
1
1
1
1
1
1
1
1
1
1
1
1
1
1
1
1
1
1
1
1
1
1
1
1
1
1
1
1
1
1
1
1
1
1
1
1
1
1
1
1
