# vtk DataFile Version 2.0
domain, Created by Gmsh 4.13.1 
ASCII
DATASET UNSTRUCTURED_GRID
POINTS 1377 double
0 0 0
2 0 0
2 1 0
0 1 0
0 0 1
2 0 1
2 1 1
0 1 1
0.2499999999995463 0 0
0.4999999999988219 0 0
0.7499999999980922 0 0
0.9999999999973842 0 0
1.249999999998022 0 0
1.499999999998681 0 0
1.749999999999341 0 0
0.1249999999997405 0 0
0.3749999999991841 0 0
0.624999999998457 0 0
0.8749999999977383 0 0
1.124999999997703 0 0
1.374999999998352 0 0
1.624999999999011 0 0
1.87499999999967 0 0
2 0.2499999999994109 0
2 0.4999999999986921 0
2 0.7499999999993406 0
2 0.1249999999997752 0
2 0.3749999999990515 0
2 0.6249999999990163 0
2 0.8749999999996704 0
1.749999999999002 1 0
1.500000000000694 1 0
1.250000000002428 1 0
1.000000000004119 1 0
0.7500000000031217 1 0
0.500000000002081 1 0
0.2500000000010405 1 0
1.874999999999377 1 0
1.62499999999999 1 0
1.375000000001578 1 0
1.125000000003424 1 0
0.8750000000036202 1 0
0.6250000000026013 1 0
0.3750000000015608 1 0
0.1250000000005203 1 0
0 0.7500000000003471 0
0 0.5000000000020595 0
0 0.2500000000010405 0
0 0.8750000000000052 0
0 0.625000000001009 0
0 0.37500000000155 0
0 0.1250000000005203 0
0.2499999999995463 0 1
0.4999999999988219 0 1
0.7499999999980922 0 1
0.9999999999973842 0 1
1.249999999998022 0 1
1.499999999998681 0 1
1.749999999999341 0 1
0.1249999999997405 0 1
0.3749999999991841 0 1
0.624999999998457 0 1
0.8749999999977383 0 1
1.124999999997703 0 1
1.374999999998352 0 1
1.624999999999011 0 1
1.87499999999967 0 1
2 0.2499999999994109 1
2 0.4999999999986921 1
2 0.7499999999993406 1
2 0.1249999999997752 1
2 0.3749999999990515 1
2 0.6249999999990163 1
2 0.8749999999996704 1
1.749999999999002 1 1
1.500000000000694 1 1
1.250000000002428 1 1
1.000000000004119 1 1
0.7500000000031217 1 1
0.500000000002081 1 1
0.2500000000010405 1 1
1.874999999999377 1 1
1.62499999999999 1 1
1.375000000001578 1 1
1.125000000003424 1 1
0.8750000000036202 1 1
0.6250000000026013 1 1
0.3750000000015608 1 1
0.1250000000005203 1 1
0 0.7500000000003471 1
0 0.5000000000020595 1
0 0.2500000000010405 1
0 0.8750000000000052 1
0 0.625000000001009 1
0 0.37500000000155 1
0 0.1250000000005203 1
0 0 0.25
0 0 0.5
0 0 0.75
0 0 0.1250000000000697
0 0 0.375
0 0 0.625
0 0 0.875
2 0 0.25
2 0 0.5
2 0 0.75
2 0 0.1250000000000697
2 0 0.375
2 0 0.625
2 0 0.875
2 1 0.25
2 1 0.5
2 1 0.75
2 1 0.1250000000000697
2 1 0.375
2 1 0.625
2 1 0.875
0 1 0.25
0 1 0.5
0 1 0.75
0 1 0.1250000000000697
0 1 0.375
0 1 0.625
0 1 0.875
0.2499999999999198 0.2500000000008368 0
0.2500000000002934 0.5000000000016387 0
0.250000000000667 0.750000000000221 0
0.4999999999996367 0.2500000000006332 0
0.5000000000004514 0.5000000000012177 0
0.5000000000012663 0.7500000000000954 0
0.7499999999993496 0.2500000000004294 0
0.7500000000006067 0.5000000000007967 0
0.7500000000018644 0.7499999999999698 0
0.9999999999990679 0.2500000000002257 0
1.000000000000752 0.5000000000003757 0
1.000000000002435 0.7499999999998438 0
1.249999999999123 0.2500000000000221 0
1.250000000000225 0.4999999999999547 0
1.250000000001327 0.7499999999997179 0
1.499999999999185 0.2499999999998184 0
1.499999999999688 0.4999999999995339 0
1.500000000000191 0.7499999999995922 0
1.749999999999256 0.2499999999996146 0
1.749999999999172 0.499999999999113 0
1.749999999999087 0.7499999999994665 0
0.249999999999733 0.1250000000004184 0
0.1249999999999599 0.2500000000009386 0
0.1249999999998502 0.1250000000004693 0
0.2500000000001066 0.3750000000012377 0
0.1250000000001467 0.5000000000018491 0
0.1250000000000533 0.3750000000013939 0
0.2500000000004802 0.6250000000009299 0
0.1250000000003335 0.750000000000284 0
0.1250000000002401 0.6250000000009694 0
0.2500000000008538 0.8750000000001106 0
0.1250000000004269 0.875000000000058 0
0.4999999999992293 0.1250000000003166 0
0.3749999999997783 0.250000000000735 0
0.3749999999994812 0.1250000000003675 0
0.5000000000000441 0.3750000000009254 0
0.3750000000003724 0.5000000000014282 0
0.3750000000000753 0.3750000000010816 0
0.5000000000008589 0.6250000000006566 0
0.3750000000009667 0.7500000000001582 0
0.3750000000006695 0.6250000000007931 0
0.5000000000016737 0.8750000000000477 0
0.3750000000012637 0.8750000000000793 0
0.7499999999987209 0.1250000000002147 0
0.6249999999994932 0.2500000000005313 0
0.6249999999989752 0.1250000000002656 0
0.7499999999999782 0.3750000000006131 0
0.6250000000005291 0.5000000000010072 0
0.6250000000000112 0.3750000000007693 0
0.7500000000012356 0.6250000000003832 0
0.6250000000015654 0.7500000000000326 0
0.6250000000010474 0.6250000000005199 0
0.7500000000024931 0.8749999999999849 0
0.6250000000020832 0.8750000000000163 0
0.9999999999982261 0.1250000000001129 0
0.8749999999992087 0.2500000000003276 0
0.8749999999984736 0.1250000000001638 0
0.9999999999999097 0.3750000000003007 0
0.8750000000006792 0.5000000000005862 0
0.874999999999944 0.3750000000004569 0
1.000000000001593 0.6250000000001097 0
0.8750000000021498 0.7499999999999067 0
0.8750000000014146 0.6250000000002465 0
1.000000000003277 0.8749999999999218 0
0.875000000002885 0.8749999999999534 0
1.249999999998572 0.125000000000011 0
1.124999999999095 0.2500000000001239 0
1.1249999999984 0.125000000000062 0
1.249999999999674 0.3749999999999884 0
1.125000000000488 0.5000000000001652 0
1.124999999999792 0.3750000000001446 0
1.250000000000776 0.6249999999998364 0
1.125000000001881 0.7499999999997808 0
1.125000000001185 0.624999999999973 0
1.250000000001877 0.874999999999859 0
1.125000000002653 0.8749999999998904 0
1.499999999998933 0.1249999999999092 0
1.374999999999154 0.2499999999999202 0
1.374999999998753 0.1249999999999601 0
1.499999999999436 0.3749999999996761 0
1.374999999999956 0.4999999999997443 0
1.374999999999555 0.3749999999998323 0
1.499999999999939 0.624999999999563 0
1.375000000000759 0.7499999999996551 0
1.375000000000357 0.6249999999996997 0
1.500000000000442 0.8749999999997962 0
1.375000000001168 0.8749999999998277 0
1.749999999999298 0.1249999999998073 0
1.624999999999221 0.2499999999997165 0
1.624999999999115 0.1249999999998583 0
1.749999999999214 0.3749999999993638 0
1.62499999999943 0.4999999999993235 0
1.624999999999325 0.37499999999952 0
1.749999999999129 0.6249999999992898 0
1.624999999999639 0.7499999999995294 0
1.624999999999534 0.6249999999994263 0
1.749999999999045 0.8749999999997333 0
1.624999999999814 0.8749999999997649 0
1.874999999999628 0.2499999999995128 0
1.874999999999649 0.1249999999997913 0
1.874999999999586 0.4999999999989025 0
1.874999999999607 0.3749999999992077 0
1.874999999999543 0.7499999999994036 0
1.874999999999565 0.624999999999153 0
1.87499999999946 0.8749999999997018 0
0.2499999999995463 0 0.25
0.2499999999995463 0 0.5
0.2499999999995463 0 0.75
0.4999999999988219 0 0.25
0.4999999999988219 0 0.5
0.4999999999988219 0 0.75
0.7499999999980922 0 0.25
0.7499999999980922 0 0.5
0.7499999999980922 0 0.75
0.9999999999973842 0 0.25
0.9999999999973842 0 0.5
0.9999999999973842 0 0.75
1.249999999998022 0 0.25
1.249999999998022 0 0.5
1.249999999998022 0 0.75
1.499999999998681 0 0.25
1.499999999998681 0 0.5
1.499999999998681 0 0.75
1.749999999999341 0 0.25
1.749999999999341 0 0.5
1.749999999999341 0 0.75
0.2499999999995463 0 0.125
0.1249999999997731 0 0.25
0.1249999999997568 0 0.1250000000000348
0.2499999999995463 0 0.375
0.1249999999997731 0 0.5
0.1249999999997731 0 0.375
0.2499999999995463 0 0.625
0.1249999999997731 0 0.75
0.1249999999997731 0 0.625
0.2499999999995463 0 0.875
0.1249999999997569 0 0.875
0.4999999999988219 0 0.125
0.3749999999991841 0 0.25
0.3749999999991841 0 0.125
0.4999999999988219 0 0.375
0.3749999999991841 0 0.5
0.3749999999991841 0 0.375
0.4999999999988219 0 0.625
0.3749999999991841 0 0.75
0.3749999999991841 0 0.625
0.4999999999988218 0 0.875
0.3749999999991841 0 0.875
0.7499999999980922 0 0.125
0.624999999998457 0 0.25
0.624999999998457 0 0.125
0.7499999999980922 0 0.375
0.624999999998457 0 0.5
0.624999999998457 0 0.375
0.7499999999980922 0 0.625
0.624999999998457 0 0.75
0.624999999998457 0 0.625
0.7499999999980922 0 0.875
0.624999999998457 0 0.875
0.9999999999973842 0 0.125
0.8749999999977383 0 0.25
0.8749999999977383 0 0.125
0.9999999999973842 0 0.375
0.8749999999977383 0 0.5
0.8749999999977383 0 0.375
0.9999999999973842 0 0.625
0.8749999999977383 0 0.75
0.8749999999977383 0 0.625
0.9999999999973843 0 0.875
0.8749999999977383 0 0.875
1.249999999998022 0 0.125
1.124999999997703 0 0.25
1.124999999997703 0 0.125
1.249999999998022 0 0.375
1.124999999997703 0 0.5
1.124999999997703 0 0.375
1.249999999998022 0 0.625
1.124999999997703 0 0.75
1.124999999997703 0 0.625
1.249999999998022 0 0.875
1.124999999997703 0 0.875
1.499999999998681 0 0.125
1.374999999998352 0 0.25
1.374999999998352 0 0.125
1.499999999998681 0 0.375
1.374999999998352 0 0.5
1.374999999998352 0 0.375
1.499999999998681 0 0.625
1.374999999998352 0 0.75
1.374999999998352 0 0.625
1.499999999998681 0 0.875
1.374999999998352 0 0.875
1.749999999999341 0 0.125
1.624999999999011 0 0.25
1.624999999999011 0 0.125
1.749999999999341 0 0.375
1.624999999999011 0 0.5
1.624999999999011 0 0.375
1.749999999999341 0 0.625
1.624999999999011 0 0.75
1.624999999999011 0 0.625
1.749999999999341 0 0.875
1.624999999999011 0 0.875
1.87499999999967 0 0.25
1.87499999999967 0 0.1250000000000348
1.87499999999967 0 0.5
1.87499999999967 0 0.375
1.87499999999967 0 0.75
1.87499999999967 0 0.625
1.87499999999967 0 0.875
2 0.2499999999994109 0.25
2 0.2499999999994109 0.5
2 0.2499999999994109 0.75
2 0.4999999999986921 0.25
2 0.4999999999986921 0.5
2 0.4999999999986921 0.75
2 0.7499999999993406 0.25
2 0.7499999999993406 0.5
2 0.7499999999993406 0.75
2 0.2499999999994109 0.125
2 0.1249999999997055 0.25
2 0.1249999999997403 0.1250000000000348
2 0.2499999999994109 0.375
2 0.1249999999997055 0.5
2 0.1249999999997055 0.375
2 0.2499999999994109 0.625
2 0.1249999999997055 0.75
2 0.1249999999997055 0.625
2 0.2499999999994109 0.875
2 0.1249999999997403 0.875
2 0.4999999999986921 0.125
2 0.3749999999990515 0.25
2 0.3749999999990515 0.125
2 0.4999999999993461 0.375
2 0.3749999999997055 0.5
[...]
CELL_DATA 288
SCALARS CellEntityIds int 1
LOOKUP_TABLE default
1
1
1
1
1
1
1
1
1
1
1
1
1
1
1
1
1
1
1
1
1
1
1
1
1
1
1
1
1
1
1
1
1
1
1
1
1
1
1
1
1
1
1
1
1
1
1
1
1
1
1
1
1
1
1
1
1
1
1
1
1
1
1
1
1
1
1
1
1
1
1
1
1
1
1
1
1
1
1
1
1
1
1
1
1
1
1
1
1
1
1
1
1
1
1
1
1
1
1
1
1
1
1
1
1
1
1
1
1
1
1
1
1
1
1
1
1
1
1
1
1
1
1
1
1
1
1
1
1
1
1
1
1
1
1
1
1
1
1
1
1
1
1
1
1
1
1
1
1
1
1
1
1
1
1
1
1
1
1
1
1
1
1
1
1
1
1
1
1
1
1
1
1
1
1
1
1
1
1
1
1
1
1
1
1
1
1
1
1
1
1
1
1
1
1
1
1
1
1
1
1
1
1
1
1
1
1
1
1
1
1
1
1
1
1
1
1
1
1
1
1
1
1
1
1
1
1
1
1
1
1
1
1
1
1
1
1
1
1
1
1
1
1
1
1
1
1
1
1
1
1
1
1
1
1
1
1
1
1
1
1
1
1
1
1
1
1
1
1
1
1
1
1
1
1
1
1
1
1
1
1
1
1
1
1
1
1
1
