# vtk DataFile Version 2.0
domain, Created by Gmsh 4.13.1 
ASCII
DATASET UNSTRUCTURED_GRID
POINTS 112 double
0 0 0
2 0 0
2 1 0
0 1 0
0 0 1
2 0 1
2 1 1
0 1 1
0.3333333333333333 0 0
0.6666666666666666 0 0
1 0 0
1.333333333333333 0 0
1.666666666666667 0 0
2 0.3333333333333333 0
2 0.6666666666666666 0
1.666666666666667 1 0
1.333333333333333 1 0
1 1 0
0.6666666666666667 1 0
0.3333333333333335 1 0
0 0.6666666666666667 0
0 0.3333333333333334 0
0 0 0.3333333333333333
0 0 0.6666666666666666
2 0 0.3333333333333333
2 0 0.6666666666666666
0.3333333333333333 0 1
0.6666666666666666 0 1
1 0 1
1.333333333333333 0 1
1.666666666666667 0 1
2 1 0.3333333333333333
2 1 0.6666666666666666
2 0.3333333333333333 1
2 0.6666666666666666 1
0 1 0.3333333333333333
0 1 0.6666666666666666
1.666666666666667 1 1
1.333333333333333 1 1
1 1 1
0.6666666666666667 1 1
0.3333333333333335 1 1
0 0.6666666666666667 1
0 0.3333333333333334 1
0.3333333333333335 0.3333333333333334 0
0.3333333333333335 0.6666666666666667 0
0.6666666666666667 0.3333333333333334 0
0.6666666666666667 0.6666666666666667 0
1 0.3333333333333333 0
1 0.6666666666666666 0
1.333333333333333 0.3333333333333333 0
1.333333333333333 0.6666666666666666 0
1.666666666666667 0.3333333333333333 0
1.666666666666667 0.6666666666666666 0
0.3333333333333333 0 0.3333333333333333
0.3333333333333333 0 0.6666666666666666
0.6666666666666666 0 0.3333333333333333
0.6666666666666666 0 0.6666666666666666
1 0 0.3333333333333333
1 0 0.6666666666666666
1.333333333333333 0 0.3333333333333333
1.333333333333333 0 0.6666666666666666
1.666666666666667 0 0.3333333333333333
1.666666666666667 0 0.6666666666666666
2 0.3333333333333333 0.3333333333333333
2 0.3333333333333333 0.6666666666666666
2 0.6666666666666666 0.3333333333333333
2 0.6666666666666666 0.6666666666666666
1.666666666666667 1 0.3333333333333333
1.666666666666667 1 0.6666666666666666
1.333333333333333 1 0.3333333333333333
1.333333333333333 1 0.6666666666666666
1 1 0.3333333333333333
1 1 0.6666666666666666
0.6666666666666667 1 0.3333333333333333
0.6666666666666667 1 0.6666666666666666
0.3333333333333335 1 0.3333333333333333
0.3333333333333335 1 0.6666666666666666
0 0.6666666666666667 0.3333333333333333
0 0.6666666666666667 0.6666666666666666
0 0.3333333333333334 0.3333333333333333
0 0.3333333333333334 0.6666666666666666
0.3333333333333335 0.3333333333333334 1
0.3333333333333335 0.6666666666666667 1
0.6666666666666667 0.3333333333333334 1
0.6666666666666667 0.6666666666666667 1
1 0.3333333333333333 1
1 0.6666666666666666 1
1.333333333333333 0.3333333333333333 1
1.333333333333333 0.6666666666666666 1
1.666666666666667 0.3333333333333333 1
1.666666666666667 0.6666666666666666 1
0.3333333333333335 0.3333333333333334 0.3333333333333333
0.3333333333333335 0.3333333333333334 0.6666666666666666
0.3333333333333335 0.6666666666666667 0.3333333333333333
0.3333333333333335 0.6666666666666667 0.6666666666666666
0.6666666666666667 0.3333333333333334 0.3333333333333333
0.6666666666666667 0.3333333333333334 0.6666666666666666
0.6666666666666667 0.6666666666666667 0.3333333333333333
0.6666666666666667 0.6666666666666667 0.6666666666666666
1 0.3333333333333333 0.3333333333333333
1 0.3333333333333333 0.6666666666666666
1 0.6666666666666666 0.3333333333333333
1 0.6666666666666666 0.6666666666666666
1.333333333333333 0.3333333333333333 0.3333333333333333
1.333333333333333 0.3333333333333333 0.6666666666666666
1.333333333333333 0.6666666666666666 0.3333333333333333
1.333333333333333 0.6666666666666666 0.6666666666666666
1.666666666666667 0.3333333333333333 0.3333333333333333
1.666666666666667 0.3333333333333333 0.6666666666666666
1.666666666666667 0.6666666666666666 0.3333333333333333
1.666666666666667 0.6666666666666666 0.6666666666666666

CELLS 144 936
4 0 8 44 21
4 21 44 45 20
4 20 45 19 3
4 8 9 46 44
4 44 46 47 45
4 45 47 18 19
4 9 10 48 46
4 46 48 49 47
4 47 49 17 18
4 10 11 50 48
4 48 50 51 49
4 49 51 16 17
4 11 12 52 50
4 50 52 53 51
4 51 53 15 16
4 12 1 13 52
4 52 13 14 53
4 53 14 2 15
4 0 8 54 22
4 22 54 55 23
4 23 55 26 4
4 8 9 56 54
4 54 56 57 55
4 55 57 27 26
4 9 10 58 56
4 56 58 59 57
4 57 59 28 27
4 10 11 60 58
4 58 60 61 59
4 59 61 29 28
4 11 12 62 60
4 60 62 63 61
4 61 63 30 29
4 12 1 24 62
4 62 24 25 63
4 63 25 5 30
4 1 13 64 24
4 24 64 65 25
4 25 65 33 5
4 13 14 66 64
4 64 66 67 65
4 65 67 34 33
4 14 2 31 66
4 66 31 32 67
4 67 32 6 34
4 2 15 68 31
4 31 68 69 32
4 32 69 37 6
4 15 16 70 68
4 68 70 71 69
4 69 71 38 37
4 16 17 72 70
4 70 72 73 71
4 71 73 39 38
4 17 18 74 72
4 72 74 75 73
4 73 75 40 39
4 18 19 76 74
4 74 76 77 75
4 75 77 41 40
4 19 3 35 76
4 76 35 36 77
4 77 36 7 41
4 3 20 78 35
4 35 78 79 36
4 36 79 42 7
4 20 21 80 78
4 78 80 81 79
4 79 81 43 42
4 21 0 22 80
4 80 22 23 81
4 81 23 4 43
4 4 26 82 43
4 43 82 83 42
4 42 83 41 7
4 26 27 84 82
4 82 84 85 83
4 83 85 40 41
4 27 28 86 84
4 84 86 87 85
4 85 87 39 40
4 28 29 88 86
4 86 88 89 87
4 87 89 38 39
4 29 30 90 88
4 88 90 91 89
4 89 91 37 38
4 30 5 33 90
4 90 33 34 91
4 91 34 6 37
8 0 8 44 21 22 54 92 80
8 22 54 92 80 23 55 93 81
8 23 55 93 81 4 26 82 43
8 21 44 45 20 80 92 94 78
8 80 92 94 78 81 93 95 79
8 81 93 95 79 43 82 83 42
8 20 45 19 3 78 94 76 35
8 78 94 76 35 79 95 77 36
8 79 95 77 36 42 83 41 7
8 8 9 46 44 54 56 96 92
8 54 56 96 92 55 57 97 93
8 55 57 97 93 26 27 84 82
8 44 46 47 45 92 96 98 94
8 92 96 98 94 93 97 99 95
8 93 97 99 95 82 84 85 83
8 45 47 18 19 94 98 74 76
8 94 98 74 76 95 99 75 77
8 95 99 75 77 83 85 40 41
8 9 10 48 46 56 58 100 96
8 56 58 100 96 57 59 101 97
8 57 59 101 97 27 28 86 84
8 46 48 49 47 96 100 102 98
8 96 100 102 98 97 101 103 99
8 97 101 103 99 84 86 87 85
8 47 49 17 18 98 102 72 74
8 98 102 72 74 99 103 73 75
8 99 103 73 75 85 87 39 40
8 10 11 50 48 58 60 104 100
8 58 60 104 100 59 61 105 101
8 59 61 105 101 28 29 88 86
8 48 50 51 49 100 104 106 102
8 100 104 106 102 101 105 107 103
8 101 105 107 103 86 88 89 87
8 49 51 16 17 102 106 70 72
8 102 106 70 72 103 107 71 73
8 103 107 71 73 87 89 38 39
8 11 12 52 50 60 62 108 104
8 60 62 108 104 61 63 109 105
8 61 63 109 105 29 30 90 88
8 50 52 53 51 104 108 110 106
8 104 108 110 106 105 109 111 107
8 105 109 111 107 88 90 91 89
8 51 53 15 16 106 110 68 70
8 106 110 68 70 107 111 69 71
8 107 111 69 71 89 91 37 38
8 12 1 13 52 62 24 64 108
8 62 24 64 108 63 25 65 109
8 63 25 65 109 30 5 33 90
8 52 13 14 53 108 64 66 110
8 108 64 66 110 109 65 67 111
8 109 65 67 111 90 33 34 91
8 53 14 2 15 110 66 31 68
8 110 66 31 68 111 67 32 69
8 111 67 32 69 91 34 6 37

CELL_TYPES 144
9
9
9
9
9
9
9
9
9
9
9
9
9
9
9
9
9
9
9
9
9
9
9
9
9
9
9
9
9
9
9
9
9
9
9
9
9
9
9
9
9
9
9
9
9
9
9
9
9
9
9
9
9
9
9
9
9
9
9
9
9
9
9
9
9
9
9
9
9
9
9
9
9
9
9
9
9
9
9
9
9
9
9
9
9
9
9
9
9
9
12
12
12
12
12
12
12
12
12
12
12
12
12
12
12
12
12
12
12
12
12
12
12
12
12
12
12
12
12
12
12
12
12
12
12
12
12
12
12
12
12
12
12
12
12
12
12
12
12
12
12
12
12
12

CELL_DATA 144
SCALARS CellEntityIds int 1
LOOKUP_TABLE default
2
2
2
2
2
2
2
2
2
2
2
2
2
2
2
2
2
2
2
2
2
2
2
2
2
2
2
2
2
2
2
2
2
2
2
2
2
2
2
2
2
2
2
2
2
2
2
2
2
2
2
2
2
2
2
2
2
2
2
2
2
2
2
2
2
2
2
2
2
2
2
2
2
2
2
2
2
2
2
2
2
2
2
2
2
2
2
2
2
2
1
1
1
1
1
1
1
1
1
1
1
1
1
1
1
1
1
1
1
1
1
1
1
1
1
1
1
1
1
1
1
1
1
1
1
1
1
1
1
1
1
1
1
1
1
1
1
1
1
1
1
1
1
1
